    1C
    1UUSER                                                              
    1UDATE              12.september.2023                               
    1UTIME              13:15:03                                        
    1UHOST                                                              
    1UPGM               CalculiX                                        
    1UVERSION           Version 2.11                             
    1UCOMPILETIME       So 31. Jul 13:26:31 CEST 2016                    
    1UDIR                                                               
    1UDBN                                                               
    1UMAT    1EL                                                        
    2C                           396                                     1
 -1         1-3.20000E-01-5.00000E-01-1.00000E-01
 -1         2-3.20000E-01-5.00000E-01 1.00000E-01
 -1         3 3.20000E-01-5.00000E-01-1.00000E-01
 -1         4 3.20000E-01-5.00000E-01 1.00000E-01
 -1         5-3.19836E-01-4.89744E-01-1.00000E-01
 -1         6-3.19343E-01-4.79498E-01-1.00000E-01
 -1         7-3.18521E-01-4.69273E-01-1.00000E-01
 -1         8-3.17373E-01-4.59079E-01-1.00000E-01
 -1         9-3.15898E-01-4.48928E-01-1.00000E-01
 -1        10-3.14099E-01-4.38829E-01-1.00000E-01
 -1        11-3.11977E-01-4.28793E-01-1.00000E-01
 -1        12-3.09534E-01-4.18831E-01-1.00000E-01
 -1        13-3.06774E-01-4.08951E-01-1.00000E-01
 -1        14-3.03698E-01-3.99165E-01-1.00000E-01
 -1        15-3.00310E-01-3.89483E-01-1.00000E-01
 -1        16-2.96613E-01-3.79915E-01-1.00000E-01
 -1        17-2.92612E-01-3.70469E-01-1.00000E-01
 -1        18-2.88310E-01-3.61157E-01-1.00000E-01
 -1        19-2.83712E-01-3.51988E-01-1.00000E-01
 -1        20-2.78822E-01-3.42970E-01-1.00000E-01
 -1        21-2.73646E-01-3.34114E-01-1.00000E-01
 -1        22-2.68188E-01-3.25429E-01-1.00000E-01
 -1        23-2.62455E-01-3.16923E-01-1.00000E-01
 -1        24-2.56452E-01-3.08605E-01-1.00000E-01
 -1        25-2.50186E-01-3.00483E-01-1.00000E-01
 -1        26-2.43663E-01-2.92567E-01-1.00000E-01
 -1        27-2.36889E-01-2.84864E-01-1.00000E-01
 -1        28-2.29872E-01-2.77382E-01-1.00000E-01
 -1        29-2.22618E-01-2.70128E-01-1.00000E-01
 -1        30-2.15136E-01-2.63111E-01-1.00000E-01
 -1        31-2.07433E-01-2.56337E-01-1.00000E-01
 -1        32-1.99517E-01-2.49814E-01-1.00000E-01
 -1        33-1.91395E-01-2.43548E-01-1.00000E-01
 -1        34-1.83077E-01-2.37545E-01-1.00000E-01
 -1        35-1.74571E-01-2.31812E-01-1.00000E-01
 -1        36-1.65886E-01-2.26354E-01-1.00000E-01
 -1        37-1.57030E-01-2.21178E-01-1.00000E-01
 -1        38-1.48012E-01-2.16288E-01-1.00000E-01
 -1        39-1.38843E-01-2.11690E-01-1.00000E-01
 -1        40-1.29531E-01-2.07388E-01-1.00000E-01
 -1        41-1.20085E-01-2.03387E-01-1.00000E-01
 -1        42-1.10517E-01-1.99690E-01-1.00000E-01
 -1        43-1.00835E-01-1.96302E-01-1.00000E-01
 -1        44-9.10488E-02-1.93226E-01-1.00000E-01
 -1        45-8.11695E-02-1.90466E-01-1.00000E-01
 -1        46-7.12067E-02-1.88023E-01-1.00000E-01
 -1        47-6.11708E-02-1.85901E-01-1.00000E-01
 -1        48-5.10720E-02-1.84102E-01-1.00000E-01
 -1        49-4.09207E-02-1.82627E-01-1.00000E-01
 -1        50-3.07274E-02-1.81479E-01-1.00000E-01
 -1        51-2.05025E-02-1.80657E-01-1.00000E-01
 -1        52-1.02565E-02-1.80164E-01-1.00000E-01
 -1        53 4.06731E-16-1.80000E-01-1.00000E-01
 -1        54 1.02565E-02-1.80164E-01-1.00000E-01
 -1        55 2.05025E-02-1.80657E-01-1.00000E-01
 -1        56 3.07274E-02-1.81479E-01-1.00000E-01
 -1        57 4.09207E-02-1.82627E-01-1.00000E-01
 -1        58 5.10720E-02-1.84102E-01-1.00000E-01
 -1        59 6.11708E-02-1.85901E-01-1.00000E-01
 -1        60 7.12067E-02-1.88023E-01-1.00000E-01
 -1        61 8.11695E-02-1.90466E-01-1.00000E-01
 -1        62 9.10488E-02-1.93226E-01-1.00000E-01
 -1        63 1.00835E-01-1.96302E-01-1.00000E-01
 -1        64 1.10517E-01-1.99690E-01-1.00000E-01
 -1        65 1.20085E-01-2.03387E-01-1.00000E-01
 -1        66 1.29531E-01-2.07388E-01-1.00000E-01
 -1        67 1.38843E-01-2.11690E-01-1.00000E-01
 -1        68 1.48012E-01-2.16288E-01-1.00000E-01
 -1        69 1.57030E-01-2.21178E-01-1.00000E-01
 -1        70 1.65886E-01-2.26354E-01-1.00000E-01
 -1        71 1.74571E-01-2.31812E-01-1.00000E-01
 -1        72 1.83077E-01-2.37545E-01-1.00000E-01
 -1        73 1.91395E-01-2.43548E-01-1.00000E-01
 -1        74 1.99517E-01-2.49814E-01-1.00000E-01
 -1        75 2.07433E-01-2.56337E-01-1.00000E-01
 -1        76 2.15136E-01-2.63111E-01-1.00000E-01
 -1        77 2.22618E-01-2.70128E-01-1.00000E-01
 -1        78 2.29872E-01-2.77382E-01-1.00000E-01
 -1        79 2.36889E-01-2.84864E-01-1.00000E-01
 -1        80 2.43663E-01-2.92567E-01-1.00000E-01
 -1        81 2.50186E-01-3.00483E-01-1.00000E-01
 -1        82 2.56452E-01-3.08605E-01-1.00000E-01
 -1        83 2.62455E-01-3.16923E-01-1.00000E-01
 -1        84 2.68188E-01-3.25429E-01-1.00000E-01
 -1        85 2.73646E-01-3.34114E-01-1.00000E-01
 -1        86 2.78822E-01-3.42970E-01-1.00000E-01
 -1        87 2.83712E-01-3.51988E-01-1.00000E-01
 -1        88 2.88310E-01-3.61157E-01-1.00000E-01
 -1        89 2.92612E-01-3.70469E-01-1.00000E-01
 -1        90 2.96613E-01-3.79915E-01-1.00000E-01
 -1        91 3.00310E-01-3.89483E-01-1.00000E-01
 -1        92 3.03698E-01-3.99165E-01-1.00000E-01
 -1        93 3.06774E-01-4.08951E-01-1.00000E-01
 -1        94 3.09534E-01-4.18831E-01-1.00000E-01
 -1        95 3.11977E-01-4.28793E-01-1.00000E-01
 -1        96 3.14099E-01-4.38829E-01-1.00000E-01
 -1        97 3.15898E-01-4.48928E-01-1.00000E-01
 -1        98 3.17373E-01-4.59079E-01-1.00000E-01
 -1        99 3.18521E-01-4.69273E-01-1.00000E-01
 -1       100 3.19343E-01-4.79498E-01-1.00000E-01
 -1       101 3.19836E-01-4.89744E-01-1.00000E-01
 -1       102-3.19836E-01-4.89744E-01 1.00000E-01
 -1       103-3.19343E-01-4.79498E-01 1.00000E-01
 -1       104-3.18521E-01-4.69273E-01 1.00000E-01
 -1       105-3.17373E-01-4.59079E-01 1.00000E-01
 -1       106-3.15898E-01-4.48928E-01 1.00000E-01
 -1       107-3.14099E-01-4.38829E-01 1.00000E-01
 -1       108-3.11977E-01-4.28793E-01 1.00000E-01
 -1       109-3.09534E-01-4.18831E-01 1.00000E-01
 -1       110-3.06774E-01-4.08951E-01 1.00000E-01
 -1       111-3.03698E-01-3.99165E-01 1.00000E-01
 -1       112-3.00310E-01-3.89483E-01 1.00000E-01
 -1       113-2.96613E-01-3.79915E-01 1.00000E-01
 -1       114-2.92612E-01-3.70469E-01 1.00000E-01
 -1       115-2.88310E-01-3.61157E-01 1.00000E-01
 -1       116-2.83712E-01-3.51988E-01 1.00000E-01
 -1       117-2.78822E-01-3.42970E-01 1.00000E-01
 -1       118-2.73646E-01-3.34114E-01 1.00000E-01
 -1       119-2.68188E-01-3.25429E-01 1.00000E-01
 -1       120-2.62455E-01-3.16923E-01 1.00000E-01
 -1       121-2.56452E-01-3.08605E-01 1.00000E-01
 -1       122-2.50186E-01-3.00483E-01 1.00000E-01
 -1       123-2.43663E-01-2.92567E-01 1.00000E-01
 -1       124-2.36889E-01-2.84864E-01 1.00000E-01
 -1       125-2.29872E-01-2.77382E-01 1.00000E-01
 -1       126-2.22618E-01-2.70128E-01 1.00000E-01
 -1       127-2.15136E-01-2.63111E-01 1.00000E-01
 -1       128-2.07433E-01-2.56337E-01 1.00000E-01
 -1       129-1.99517E-01-2.49814E-01 1.00000E-01
 -1       130-1.91395E-01-2.43548E-01 1.00000E-01
 -1       131-1.83077E-01-2.37545E-01 1.00000E-01
 -1       132-1.74571E-01-2.31812E-01 1.00000E-01
 -1       133-1.65886E-01-2.26354E-01 1.00000E-01
 -1       134-1.57030E-01-2.21178E-01 1.00000E-01
 -1       135-1.48012E-01-2.16288E-01 1.00000E-01
 -1       136-1.38843E-01-2.11690E-01 1.00000E-01
 -1       137-1.29531E-01-2.07388E-01 1.00000E-01
 -1       138-1.20085E-01-2.03387E-01 1.00000E-01
 -1       139-1.10517E-01-1.99690E-01 1.00000E-01
 -1       140-1.00835E-01-1.96302E-01 1.00000E-01
 -1       141-9.10488E-02-1.93226E-01 1.00000E-01
 -1       142-8.11695E-02-1.90466E-01 1.00000E-01
 -1       143-7.12067E-02-1.88023E-01 1.00000E-01
 -1       144-6.11708E-02-1.85901E-01 1.00000E-01
 -1       145-5.10720E-02-1.84102E-01 1.00000E-01
 -1       146-4.09207E-02-1.82627E-01 1.00000E-01
 -1       147-3.07274E-02-1.81479E-01 1.00000E-01
 -1       148-2.05025E-02-1.80657E-01 1.00000E-01
 -1       149-1.02565E-02-1.80164E-01 1.00000E-01
 -1       150 4.06731E-16-1.80000E-01 1.00000E-01
 -1       151 1.02565E-02-1.80164E-01 1.00000E-01
 -1       152 2.05025E-02-1.80657E-01 1.00000E-01
 -1       153 3.07274E-02-1.81479E-01 1.00000E-01
 -1       154 4.09207E-02-1.82627E-01 1.00000E-01
 -1       155 5.10720E-02-1.84102E-01 1.00000E-01
 -1       156 6.11708E-02-1.85901E-01 1.00000E-01
 -1       157 7.12067E-02-1.88023E-01 1.00000E-01
 -1       158 8.11695E-02-1.90466E-01 1.00000E-01
 -1       159 9.10488E-02-1.93226E-01 1.00000E-01
 -1       160 1.00835E-01-1.96302E-01 1.00000E-01
 -1       161 1.10517E-01-1.99690E-01 1.00000E-01
 -1       162 1.20085E-01-2.03387E-01 1.00000E-01
 -1       163 1.29531E-01-2.07388E-01 1.00000E-01
 -1       164 1.38843E-01-2.11690E-01 1.00000E-01
 -1       165 1.48012E-01-2.16288E-01 1.00000E-01
 -1       166 1.57030E-01-2.21178E-01 1.00000E-01
 -1       167 1.65886E-01-2.26354E-01 1.00000E-01
 -1       168 1.74571E-01-2.31812E-01 1.00000E-01
 -1       169 1.83077E-01-2.37545E-01 1.00000E-01
 -1       170 1.91395E-01-2.43548E-01 1.00000E-01
 -1       171 1.99517E-01-2.49814E-01 1.00000E-01
 -1       172 2.07433E-01-2.56337E-01 1.00000E-01
 -1       173 2.15136E-01-2.63111E-01 1.00000E-01
 -1       174 2.22618E-01-2.70128E-01 1.00000E-01
 -1       175 2.29872E-01-2.77382E-01 1.00000E-01
 -1       176 2.36889E-01-2.84864E-01 1.00000E-01
 -1       177 2.43663E-01-2.92567E-01 1.00000E-01
 -1       178 2.50186E-01-3.00483E-01 1.00000E-01
 -1       179 2.56452E-01-3.08605E-01 1.00000E-01
 -1       180 2.62455E-01-3.16923E-01 1.00000E-01
 -1       181 2.68188E-01-3.25429E-01 1.00000E-01
 -1       182 2.73646E-01-3.34114E-01 1.00000E-01
 -1       183 2.78822E-01-3.42970E-01 1.00000E-01
 -1       184 2.83712E-01-3.51988E-01 1.00000E-01
 -1       185 2.88310E-01-3.61157E-01 1.00000E-01
 -1       186 2.92612E-01-3.70469E-01 1.00000E-01
 -1       187 2.96613E-01-3.79915E-01 1.00000E-01
 -1       188 3.00310E-01-3.89483E-01 1.00000E-01
 -1       189 3.03698E-01-3.99165E-01 1.00000E-01
 -1       190 3.06774E-01-4.08951E-01 1.00000E-01
 -1       191 3.09534E-01-4.18831E-01 1.00000E-01
 -1       192 3.11977E-01-4.28793E-01 1.00000E-01
 -1       193 3.14099E-01-4.38829E-01 1.00000E-01
 -1       194 3.15898E-01-4.48928E-01 1.00000E-01
 -1       195 3.17373E-01-4.59079E-01 1.00000E-01
 -1       196 3.18521E-01-4.69273E-01 1.00000E-01
 -1       197 3.19343E-01-4.79498E-01 1.00000E-01
 -1       198 3.19836E-01-4.89744E-01 1.00000E-01
 -1       199 3.00000E-01-5.00000E-01-1.00000E-01
 -1       200 3.00000E-01-5.00000E-01 1.00000E-01
 -1       201-3.00000E-01-5.00000E-01-1.00000E-01
 -1       202-3.00000E-01-5.00000E-01 1.00000E-01
 -1       203-2.99846E-01-4.90385E-01-1.00000E-01
 -1       204-2.99384E-01-4.80779E-01-1.00000E-01
 -1       205-2.98614E-01-4.71193E-01-1.00000E-01
 -1       206-2.97537E-01-4.61637E-01-1.00000E-01
 -1       207-2.96155E-01-4.52120E-01-1.00000E-01
 -1       208-2.94468E-01-4.42652E-01-1.00000E-01
 -1       209-2.92478E-01-4.33244E-01-1.00000E-01
 -1       210-2.90188E-01-4.23904E-01-1.00000E-01
 -1       211-2.87600E-01-4.14642E-01-1.00000E-01
 -1       212-2.84717E-01-4.05468E-01-1.00000E-01
 -1       213-2.81541E-01-3.96390E-01-1.00000E-01
 -1       214-2.78075E-01-3.87420E-01-1.00000E-01
 -1       215-2.74324E-01-3.78565E-01-1.00000E-01
 -1       216-2.70291E-01-3.69835E-01-1.00000E-01
 -1       217-2.65980E-01-3.61239E-01-1.00000E-01
 -1       218-2.61396E-01-3.52785E-01-1.00000E-01
 -1       219-2.56543E-01-3.44482E-01-1.00000E-01
 -1       220-2.51426E-01-3.36340E-01-1.00000E-01
 -1       221-2.46052E-01-3.28365E-01-1.00000E-01
 -1       222-2.40424E-01-3.20567E-01-1.00000E-01
 -1       223-2.34549E-01-3.12953E-01-1.00000E-01
 -1       224-2.28434E-01-3.05531E-01-1.00000E-01
 -1       225-2.22083E-01-2.98310E-01-1.00000E-01
 -1       226-2.15505E-01-2.91295E-01-1.00000E-01
 -1       227-2.08705E-01-2.84495E-01-1.00000E-01
 -1       228-2.01690E-01-2.77917E-01-1.00000E-01
 -1       229-1.94469E-01-2.71566E-01-1.00000E-01
 -1       230-1.87047E-01-2.65451E-01-1.00000E-01
 -1       231-1.79433E-01-2.59576E-01-1.00000E-01
 -1       232-1.71635E-01-2.53948E-01-1.00000E-01
 -1       233-1.63660E-01-2.48574E-01-1.00000E-01
 -1       234-1.55518E-01-2.43457E-01-1.00000E-01
 -1       235-1.47215E-01-2.38604E-01-1.00000E-01
 -1       236-1.38761E-01-2.34020E-01-1.00000E-01
 -1       237-1.30165E-01-2.29709E-01-1.00000E-01
 -1       238-1.21435E-01-2.25676E-01-1.00000E-01
 -1       239-1.12580E-01-2.21925E-01-1.00000E-01
 -1       240-1.03610E-01-2.18459E-01-1.00000E-01
 -1       241-9.45325E-02-2.15283E-01-1.00000E-01
 -1       242-8.53583E-02-2.12400E-01-1.00000E-01
 -1       243-7.60964E-02-2.09812E-01-1.00000E-01
 -1       244-6.67563E-02-2.07522E-01-1.00000E-01
 -1       245-5.73476E-02-2.05532E-01-1.00000E-01
 -1       246-4.78800E-02-2.03845E-01-1.00000E-01
 -1       247-3.83631E-02-2.02463E-01-1.00000E-01
 -1       248-2.88069E-02-2.01386E-01-1.00000E-01
 -1       249-1.92211E-02-2.00616E-01-1.00000E-01
 -1       250-9.61547E-03-2.00154E-01-1.00000E-01
 -1       251 3.81311E-16-2.00000E-01-1.00000E-01
 -1       252 9.61547E-03-2.00154E-01-1.00000E-01
 -1       253 1.92211E-02-2.00616E-01-1.00000E-01
 -1       254 2.88069E-02-2.01386E-01-1.00000E-01
 -1       255 3.83631E-02-2.02463E-01-1.00000E-01
 -1       256 4.78800E-02-2.03845E-01-1.00000E-01
 -1       257 5.73476E-02-2.05532E-01-1.00000E-01
 -1       258 6.67563E-02-2.07522E-01-1.00000E-01
 -1       259 7.60964E-02-2.09812E-01-1.00000E-01
 -1       260 8.53583E-02-2.12400E-01-1.00000E-01
 -1       261 9.45325E-02-2.15283E-01-1.00000E-01
 -1       262 1.03610E-01-2.18459E-01-1.00000E-01
 -1       263 1.12580E-01-2.21925E-01-1.00000E-01
 -1       264 1.21435E-01-2.25676E-01-1.00000E-01
 -1       265 1.30165E-01-2.29709E-01-1.00000E-01
 -1       266 1.38761E-01-2.34020E-01-1.00000E-01
 -1       267 1.47215E-01-2.38604E-01-1.00000E-01
 -1       268 1.55518E-01-2.43457E-01-1.00000E-01
 -1       269 1.63660E-01-2.48574E-01-1.00000E-01
 -1       270 1.71635E-01-2.53948E-01-1.00000E-01
 -1       271 1.79433E-01-2.59576E-01-1.00000E-01
 -1       272 1.87047E-01-2.65451E-01-1.00000E-01
 -1       273 1.94469E-01-2.71566E-01-1.00000E-01
 -1       274 2.01690E-01-2.77917E-01-1.00000E-01
 -1       275 2.08705E-01-2.84495E-01-1.00000E-01
 -1       276 2.15505E-01-2.91295E-01-1.00000E-01
 -1       277 2.22083E-01-2.98310E-01-1.00000E-01
 -1       278 2.28434E-01-3.05531E-01-1.00000E-01
 -1       279 2.34549E-01-3.12953E-01-1.00000E-01
 -1       280 2.40424E-01-3.20567E-01-1.00000E-01
 -1       281 2.46052E-01-3.28365E-01-1.00000E-01
 -1       282 2.51426E-01-3.36340E-01-1.00000E-01
 -1       283 2.56543E-01-3.44482E-01-1.00000E-01
 -1       284 2.61396E-01-3.52785E-01-1.00000E-01
 -1       285 2.65980E-01-3.61239E-01-1.00000E-01
 -1       286 2.70291E-01-3.69835E-01-1.00000E-01
 -1       287 2.74324E-01-3.78565E-01-1.00000E-01
 -1       288 2.78075E-01-3.87420E-01-1.00000E-01
 -1       289 2.81541E-01-3.96390E-01-1.00000E-01
 -1       290 2.84717E-01-4.05468E-01-1.00000E-01
 -1       291 2.87600E-01-4.14642E-01-1.00000E-01
 -1       292 2.90188E-01-4.23904E-01-1.00000E-01
 -1       293 2.92478E-01-4.33244E-01-1.00000E-01
 -1       294 2.94468E-01-4.42652E-01-1.00000E-01
 -1       295 2.96155E-01-4.52120E-01-1.00000E-01
 -1       296 2.97537E-01-4.61637E-01-1.00000E-01
 -1       297 2.98614E-01-4.71193E-01-1.00000E-01
 -1       298 2.99384E-01-4.80779E-01-1.00000E-01
 -1       299 2.99846E-01-4.90385E-01-1.00000E-01
 -1       300-2.99846E-01-4.90385E-01 1.00000E-01
 -1       301-2.99384E-01-4.80779E-01 1.00000E-01
 -1       302-2.98614E-01-4.71193E-01 1.00000E-01
 -1       303-2.97537E-01-4.61637E-01 1.00000E-01
 -1       304-2.96155E-01-4.52120E-01 1.00000E-01
 -1       305-2.94468E-01-4.42652E-01 1.00000E-01
 -1       306-2.92478E-01-4.33244E-01 1.00000E-01
 -1       307-2.90188E-01-4.23904E-01 1.00000E-01
 -1       308-2.87600E-01-4.14642E-01 1.00000E-01
 -1       309-2.84717E-01-4.05468E-01 1.00000E-01
 -1       310-2.81541E-01-3.96390E-01 1.00000E-01
 -1       311-2.78075E-01-3.87420E-01 1.00000E-01
 -1       312-2.74324E-01-3.78565E-01 1.00000E-01
 -1       313-2.70291E-01-3.69835E-01 1.00000E-01
 -1       314-2.65980E-01-3.61239E-01 1.00000E-01
 -1       315-2.61396E-01-3.52785E-01 1.00000E-01
 -1       316-2.56543E-01-3.44482E-01 1.00000E-01
 -1       317-2.51426E-01-3.36340E-01 1.00000E-01
 -1       318-2.46052E-01-3.28365E-01 1.00000E-01
 -1       319-2.40424E-01-3.20567E-01 1.00000E-01
 -1       320-2.34549E-01-3.12953E-01 1.00000E-01
 -1       321-2.28434E-01-3.05531E-01 1.00000E-01
 -1       322-2.22083E-01-2.98310E-01 1.00000E-01
 -1       323-2.15505E-01-2.91295E-01 1.00000E-01
 -1       324-2.08705E-01-2.84495E-01 1.00000E-01
 -1       325-2.01690E-01-2.77917E-01 1.00000E-01
 -1       326-1.94469E-01-2.71566E-01 1.00000E-01
 -1       327-1.87047E-01-2.65451E-01 1.00000E-01
 -1       328-1.79433E-01-2.59576E-01 1.00000E-01
 -1       329-1.71635E-01-2.53948E-01 1.00000E-01
 -1       330-1.63660E-01-2.48574E-01 1.00000E-01
 -1       331-1.55518E-01-2.43457E-01 1.00000E-01
 -1       332-1.47215E-01-2.38604E-01 1.00000E-01
 -1       333-1.38761E-01-2.34020E-01 1.00000E-01
 -1       334-1.30165E-01-2.29709E-01 1.00000E-01
 -1       335-1.21435E-01-2.25676E-01 1.00000E-01
 -1       336-1.12580E-01-2.21925E-01 1.00000E-01
 -1       337-1.03610E-01-2.18459E-01 1.00000E-01
 -1       338-9.45325E-02-2.15283E-01 1.00000E-01
 -1       339-8.53583E-02-2.12400E-01 1.00000E-01
 -1       340-7.60964E-02-2.09812E-01 1.00000E-01
 -1       341-6.67563E-02-2.07522E-01 1.00000E-01
 -1       342-5.73476E-02-2.05532E-01 1.00000E-01
 -1       343-4.78800E-02-2.03845E-01 1.00000E-01
 -1       344-3.83631E-02-2.02463E-01 1.00000E-01
 -1       345-2.88069E-02-2.01386E-01 1.00000E-01
 -1       346-1.92211E-02-2.00616E-01 1.00000E-01
 -1       347-9.61547E-03-2.00154E-01 1.00000E-01
 -1       348 3.81311E-16-2.00000E-01 1.00000E-01
 -1       349 9.61547E-03-2.00154E-01 1.00000E-01
 -1       350 1.92211E-02-2.00616E-01 1.00000E-01
 -1       351 2.88069E-02-2.01386E-01 1.00000E-01
 -1       352 3.83631E-02-2.02463E-01 1.00000E-01
 -1       353 4.78800E-02-2.03845E-01 1.00000E-01
 -1       354 5.73476E-02-2.05532E-01 1.00000E-01
 -1       355 6.67563E-02-2.07522E-01 1.00000E-01
 -1       356 7.60964E-02-2.09812E-01 1.00000E-01
 -1       357 8.53583E-02-2.12400E-01 1.00000E-01
 -1       358 9.45325E-02-2.15283E-01 1.00000E-01
 -1       359 1.03610E-01-2.18459E-01 1.00000E-01
 -1       360 1.12580E-01-2.21925E-01 1.00000E-01
 -1       361 1.21435E-01-2.25676E-01 1.00000E-01
 -1       362 1.30165E-01-2.29709E-01 1.00000E-01
 -1       363 1.38761E-01-2.34020E-01 1.00000E-01
 -1       364 1.47215E-01-2.38604E-01 1.00000E-01
 -1       365 1.55518E-01-2.43457E-01 1.00000E-01
 -1       366 1.63660E-01-2.48574E-01 1.00000E-01
 -1       367 1.71635E-01-2.53948E-01 1.00000E-01
 -1       368 1.79433E-01-2.59576E-01 1.00000E-01
 -1       369 1.87047E-01-2.65451E-01 1.00000E-01
 -1       370 1.94469E-01-2.71566E-01 1.00000E-01
 -1       371 2.01690E-01-2.77917E-01 1.00000E-01
 -1       372 2.08705E-01-2.84495E-01 1.00000E-01
 -1       373 2.15505E-01-2.91295E-01 1.00000E-01
 -1       374 2.22083E-01-2.98310E-01 1.00000E-01
 -1       375 2.28434E-01-3.05531E-01 1.00000E-01
 -1       376 2.34549E-01-3.12953E-01 1.00000E-01
 -1       377 2.40424E-01-3.20567E-01 1.00000E-01
 -1       378 2.46052E-01-3.28365E-01 1.00000E-01
 -1       379 2.51426E-01-3.36340E-01 1.00000E-01
 -1       380 2.56543E-01-3.44482E-01 1.00000E-01
 -1       381 2.61396E-01-3.52785E-01 1.00000E-01
 -1       382 2.65980E-01-3.61239E-01 1.00000E-01
 -1       383 2.70291E-01-3.69835E-01 1.00000E-01
 -1       384 2.74324E-01-3.78565E-01 1.00000E-01
 -1       385 2.78075E-01-3.87420E-01 1.00000E-01
 -1       386 2.81541E-01-3.96390E-01 1.00000E-01
 -1       387 2.84717E-01-4.05468E-01 1.00000E-01
 -1       388 2.87600E-01-4.14642E-01 1.00000E-01
 -1       389 2.90188E-01-4.23904E-01 1.00000E-01
 -1       390 2.92478E-01-4.33244E-01 1.00000E-01
 -1       391 2.94468E-01-4.42652E-01 1.00000E-01
 -1       392 2.96155E-01-4.52120E-01 1.00000E-01
 -1       393 2.97537E-01-4.61637E-01 1.00000E-01
 -1       394 2.98614E-01-4.71193E-01 1.00000E-01
 -1       395 2.99384E-01-4.80779E-01 1.00000E-01
 -1       396 2.99846E-01-4.90385E-01 1.00000E-01
 -3
    3C                            98                                     1
 -1       795    1    0    1
 -2         1         5       102         2       201       203       300       202
 -1       796    1    0    1
 -2         5         6       103       102       203       204       301       300
 -1       797    1    0    1
 -2         6         7       104       103       204       205       302       301
 -1       798    1    0    1
 -2         7         8       105       104       205       206       303       302
 -1       799    1    0    1
 -2         8         9       106       105       206       207       304       303
 -1       800    1    0    1
 -2         9        10       107       106       207       208       305       304
 -1       801    1    0    1
 -2        10        11       108       107       208       209       306       305
 -1       802    1    0    1
 -2        11        12       109       108       209       210       307       306
 -1       803    1    0    1
 -2        12        13       110       109       210       211       308       307
 -1       804    1    0    1
 -2        13        14       111       110       211       212       309       308
 -1       805    1    0    1
 -2        14        15       112       111       212       213       310       309
 -1       806    1    0    1
 -2        15        16       113       112       213       214       311       310
 -1       807    1    0    1
 -2        16        17       114       113       214       215       312       311
 -1       808    1    0    1
 -2        17        18       115       114       215       216       313       312
 -1       809    1    0    1
 -2        18        19       116       115       216       217       314       313
 -1       810    1    0    1
 -2        19        20       117       116       217       218       315       314
 -1       811    1    0    1
 -2        20        21       118       117       218       219       316       315
 -1       812    1    0    1
 -2        21        22       119       118       219       220       317       316
 -1       813    1    0    1
 -2        22        23       120       119       220       221       318       317
 -1       814    1    0    1
 -2        23        24       121       120       221       222       319       318
 -1       815    1    0    1
 -2        24        25       122       121       222       223       320       319
 -1       816    1    0    1
 -2        25        26       123       122       223       224       321       320
 -1       817    1    0    1
 -2        26        27       124       123       224       225       322       321
 -1       818    1    0    1
 -2        27        28       125       124       225       226       323       322
 -1       819    1    0    1
 -2        28        29       126       125       226       227       324       323
 -1       820    1    0    1
 -2        29        30       127       126       227       228       325       324
 -1       821    1    0    1
 -2        30        31       128       127       228       229       326       325
 -1       822    1    0    1
 -2        31        32       129       128       229       230       327       326
 -1       823    1    0    1
 -2        32        33       130       129       230       231       328       327
 -1       824    1    0    1
 -2        33        34       131       130       231       232       329       328
 -1       825    1    0    1
 -2        34        35       132       131       232       233       330       329
 -1       826    1    0    1
 -2        35        36       133       132       233       234       331       330
 -1       827    1    0    1
 -2        36        37       134       133       234       235       332       331
 -1       828    1    0    1
 -2        37        38       135       134       235       236       333       332
 -1       829    1    0    1
 -2        38        39       136       135       236       237       334       333
 -1       830    1    0    1
 -2        39        40       137       136       237       238       335       334
 -1       831    1    0    1
 -2        40        41       138       137       238       239       336       335
 -1       832    1    0    1
 -2        41        42       139       138       239       240       337       336
 -1       833    1    0    1
 -2        42        43       140       139       240       241       338       337
 -1       834    1    0    1
 -2        43        44       141       140       241       242       339       338
 -1       835    1    0    1
 -2        44        45       142       141       242       243       340       339
 -1       836    1    0    1
 -2        45        46       143       142       243       244       341       340
 -1       837    1    0    1
 -2        46        47       144       143       244       245       342       341
 -1       838    1    0    1
 -2        47        48       145       144       245       246       343       342
 -1       839    1    0    1
 -2        48        49       146       145       246       247       344       343
 -1       840    1    0    1
 -2        49        50       147       146       247       248       345       344
 -1       841    1    0    1
 -2        50        51       148       147       248       249       346       345
 -1       842    1    0    1
 -2        51        52       149       148       249       250       347       346
 -1       843    1    0    1
 -2        52        53       150       149       250       251       348       347
 -1       844    1    0    1
 -2        53        54       151       150       251       252       349       348
 -1       845    1    0    1
 -2        54        55       152       151       252       253       350       349
 -1       846    1    0    1
 -2        55        56       153       152       253       254       351       350
 -1       847    1    0    1
 -2        56        57       154       153       254       255       352       351
 -1       848    1    0    1
 -2        57        58       155       154       255       256       353       352
 -1       849    1    0    1
 -2        58        59       156       155       256       257       354       353
 -1       850    1    0    1
 -2        59        60       157       156       257       258       355       354
 -1       851    1    0    1
 -2        60        61       158       157       258       259       356       355
 -1       852    1    0    1
 -2        61        62       159       158       259       260       357       356
 -1       853    1    0    1
 -2        62        63       160       159       260       261       358       357
 -1       854    1    0    1
 -2        63        64       161       160       261       262       359       358
 -1       855    1    0    1
 -2        64        65       162       161       262       263       360       359
 -1       856    1    0    1
 -2        65        66       163       162       263       264       361       360
 -1       857    1    0    1
 -2        66        67       164       163       264       265       362       361
 -1       858    1    0    1
 -2        67        68       165       164       265       266       363       362
 -1       859    1    0    1
 -2        68        69       166       165       266       267       364       363
 -1       860    1    0    1
 -2        69        70       167       166       267       268       365       364
 -1       861    1    0    1
 -2        70        71       168       167       268       269       366       365
 -1       862    1    0    1
 -2        71        72       169       168       269       270       367       366
 -1       863    1    0    1
 -2        72        73       170       169       270       271       368       367
 -1       864    1    0    1
 -2        73        74       171       170       271       272       369       368
 -1       865    1    0    1
 -2        74        75       172       171       272       273       370       369
 -1       866    1    0    1
 -2        75        76       173       172       273       274       371       370
 -1       867    1    0    1
 -2        76        77       174       173       274       275       372       371
 -1       868    1    0    1
 -2        77        78       175       174       275       276       373       372
 -1       869    1    0    1
 -2        78        79       176       175       276       277       374       373
 -1       870    1    0    1
 -2        79        80       177       176       277       278       375       374
 -1       871    1    0    1
 -2        80        81       178       177       278       279       376       375
 -1       872    1    0    1
 -2        81        82       179       178       279       280       377       376
 -1       873    1    0    1
 -2        82        83       180       179       280       281       378       377
 -1       874    1    0    1
 -2        83        84       181       180       281       282       379       378
 -1       875    1    0    1
 -2        84        85       182       181       282       283       380       379
 -1       876    1    0    1
 -2        85        86       183       182       283       284       381       380
 -1       877    1    0    1